# vtk DataFile Version 3.0
Tracts generated with tensor 1
ASCII
DATASET POLYDATA
POINTS 23159 float
12.6304 6.85923 33.608 12.4887 6.84124 33.3405 12.342 6.82154 33.076
12.1909 6.79929 32.8145 12.0349 6.77368 32.5564 11.8731 6.74442 32.3026
11.7041 6.71189 32.0544 11.5263 6.67691 31.8132 11.3394 6.64136 31.5797
11.1438 6.60584 31.3541 10.9411 6.56968 31.1355 10.7329 6.53246 30.9227
10.5213 6.49344 30.714 10.308 6.45186 30.5076 10.0946 6.40714 30.302
9.88216 6.35908 30.0961 9.67127 6.30875 29.8891 9.46151 6.25684 29.6813
9.25244 6.20302 29.4731 9.04283 6.1483 29.2659 8.83114 6.09376 29.0608
8.61576 6.04045 28.8597 8.3953 5.98919 28.664 8.16886 5.94035 28.4752
7.93647 5.89451 28.2935 7.69856 5.85117 28.1191 7.45555 5.80995 27.9519
7.20807 5.76953 27.7918 6.95641 5.72946 27.6388 6.70073 5.68954 27.4931
6.44119 5.65001 27.3549 6.17839 5.61174 27.2232 5.91272 5.57528 27.0973
5.6445 5.541 26.9767 5.37393 5.50887 26.8612 5.10121 5.47836 26.7509
4.82649 5.44848 26.646 4.55031 5.41835 26.5453 4.27289 5.38689 26.4489
3.99435 5.35327 26.3568 3.71474 5.31698 26.2694 3.43426 5.27621 26.1872
3.15307 5.23002 26.1108 2.87151 5.17869 26.0394 2.58982 5.12231 25.9728
2.30817 5.06119 25.9105 2.02669 4.99565 25.8521 1.74543 4.926 25.7976
1.46443 4.85248 25.7472 1.18362 4.77602 25.7003 0.902967 4.69677 25.6573
0.622439 4.61472 25.6192 0.341914 4.53015 25.5873 0.0613026 4.44347 25.563
-0.219509 4.35553 25.5476 -0.500594 4.26748 25.5404 -0.782002 4.18023 25.5412
-1.06372 4.09435 25.5488 -1.34569 4.0099 25.5614 -1.62781 3.92636 25.5765
-1.90993 3.84282 25.5916 -2.1922 3.76052 25.6102 -2.47476 3.68065 25.6343
-2.75757 3.60412 25.6655 -3.0405 3.53156 25.7044 -3.32328 3.46307 25.7513
-3.60564 3.3984 25.806 -3.88717 3.33693 25.8685 -4.16771 3.27756 25.9377
-4.44711 3.21914 26.0125 -4.72534 3.1606 26.0917 -5.00235 3.10092 26.1746
-5.27788 3.03921 26.2612 -5.55185 2.97478 26.3511 -5.82395 2.90618 26.4438
-6.09397 2.83365 26.54 -6.36165 2.75779 26.6404 -6.62671 2.67972 26.7465
-6.88895 2.601 26.8594 -7.14821 2.52405 26.9808 -7.40472 2.45063 27.1104
-7.65885 2.38194 27.2476 -7.91097 2.31849 27.3913 -8.16145 2.26017 27.5402
-8.41063 2.20646 27.6933 -8.65876 2.15702 27.8497 -8.90623 2.11087 28.0082
-9.15337 2.06747 28.1681 -9.40032 2.02669 28.329 -9.64729 1.98875 28.4906
-9.89425 1.95422 28.653 -10.1409 1.92392 28.8168 -10.3868 1.89816 28.9826
-10.6315 1.87688 29.1511 -10.8744 1.85933 29.3226 -11.1155 1.84408 29.4972
-11.3547 1.82911 29.6746 -11.592 1.81216 29.8546 -11.8272 1.79076 30.0371
-12.0601 1.76167 30.2216 -12.2905 1.72301 30.4075 -12.5182 1.67315 30.5945
-12.7423 1.61035 30.782 -12.962 1.53252 30.9694 -13.1757 1.43814 31.1562
-13.3822 1.32658 31.342 -13.5805 1.19912 31.527 -13.7695 1.05758 31.7116
-13.9502 0.905896 31.897 -14.1235 0.747877 32.0845 -14.2902 0.586725 32.2757
-14.4507 0.424822 32.4718 -14.605 0.263697 32.674 -14.7524 0.104087 32.8828
-14.8918 -0.0539222 33.0987 -15.0211 -0.210827 33.3222 -15.138 -0.366423 33.5538
-15.2412 -0.521651 33.7926 -15.3299 -0.677443 34.0373 -15.4041 -0.834906 34.286
-15.4637 -0.99548 34.537 -15.5085 -1.16097 34.7879 -15.5374 -1.33344 35.0365
-15.5489 -1.51505 35.2797 -15.5425 -1.70734 35.5145 -15.5182 -1.91118 35.7376
-15.4775 -2.12636 35.9465 -15.4233 -2.35162 36.1406 -15.3592 -2.5849 36.3211
-15.289 -2.82379 36.4912 -15.2154 -3.06597 36.6547 -15.1404 -3.30923 36.8159
-15.0647 -3.55184 36.9778 -14.9872 -3.79193 37.1426 -14.9073 -4.02906 37.3105
-14.8239 -4.26258 37.4819 -14.7361 -4.49233 37.6562 -14.643 -4.71841 37.8325
-14.5437 -4.94097 38.0098 -14.4376 -5.16014 38.1872 -14.3235 -5.37551 38.3641
-14.2018 -5.58631 38.5412 -14.0731 -5.79227 38.7189 -13.9385 -5.99281 38.8983
-13.7993 -6.18716 39.081 -13.6569 -6.37431 39.2687 -13.5126 -6.55296 39.4633
-13.3676 -6.72159 39.6666 -13.2227 -6.87795 39.8798 -13.0787 -7.02135 40.1029
-12.9361 -7.1498 40.3363 -12.7953 -7.26334 40.5787 -12.6564 -7.3623 40.8288
-12.5192 -7.44732 41.0852 -12.3836 -7.51911 41.3467 -12.2494 -7.57822 41.6122
-12.1164 -7.62498 41.881 -11.9846 -7.65914 42.1523 -11.8534 -7.68173 42.4252
-11.7225 -7.69402 42.6989 -11.5917 -7.69771 42.9729 -11.4604 -7.69459 43.2467
-11.3291 -7.68695 43.5204 -11.1988 -7.67661 43.7946 -11.0699 -7.66544 44.0694
-10.9426 -7.6546 44.345 -10.8169 -7.64465 44.6214 -10.6926 -7.6357 44.8986
-10.5695 -7.62766 45.1764 -10.4481 -7.62056 45.455 -10.3284 -7.61445 45.7344
-10.2108 -7.60965 46.0149 -10.0964 -7.60664 46.2968 -9.98642 -7.60589 46.5806
-9.8822 -7.60802 46.8667 -9.78541 -7.61341 47.1556 -9.69679 -7.62232 47.4472
-9.61609 -7.63505 47.7412 -9.54212 -7.65199 48.0368 -9.47297 -7.67357 48.3334
-9.40642 -7.70025 48.6303 -9.34017 -7.73254 48.9266 -9.27238 -7.77051 49.2218
-9.20176 -7.81404 49.5155 -9.12752 -7.86299 49.8073 -9.04912 -7.91726 50.097
-8.9663 -7.97685 50.3843 2.95397 -2.54929 57.3013 3.10864 -2.43124 57.0705
3.2633 -2.31345 56.8396 3.41827 -2.1954 56.6091 3.57332 -2.07632 56.3792
3.72793 -1.95532 56.15 3.88143 -1.83151 55.9216 4.03323 -1.70417 55.6939
4.18291 -1.57284 55.4671 4.33035 -1.43729 55.2413 4.47596 -1.29815 55.0165
4.62038 -1.15573 54.793 4.76438 -1.01009 54.5714 4.90889 -0.86095 54.3525
5.05476 -0.707788 54.1376 5.20289 -0.549889 53.928 5.35377 -0.386973 53.7246
5.50744 -0.219145 53.5276 5.66335 -0.0472153 53.3364 5.82076 0.128109 53.1498
5.97873 0.305591 52.9658 6.13665 0.48403 52.7827 6.29413 0.662176 52.5989
6.45098 0.838803 52.4131 6.60713 1.01284 52.224 6.76242 1.18351 52.0311
6.91699 1.35115 51.8348 7.07002 1.51652 51.6352 7.22079 1.6807 51.4328
7.3683 1.84421 51.2272 7.51162 2.00762 51.0183 7.64991 2.17093 50.8058
7.78256 2.33364 50.5888 7.90931 2.49495 50.3671 8.03035 2.65416 50.1404
8.14644 2.81111 49.9093 8.25869 2.96579 49.6745 8.36832 3.11843 49.4371
8.4771 3.27013 49.1986 8.58645 3.42086 48.9597 8.69814 3.56915 48.7204
8.814 3.71337 48.4807 8.93589 3.85125 48.2403 9.06492 3.98046 47.999
9.20166 4.09889 47.7565 9.34592 4.20514 47.5129 9.49691 4.29868 47.2682
9.65348 4.37972 47.0227 9.81442 4.44902 46.7765 9.97872 4.50749 46.5299
10.1449 4.55648 46.2824 10.3126 4.59753 46.0345 10.4813 4.63154 45.7863
10.6505 4.65935 45.5376 10.8195 4.68177 45.2882 10.9878 4.6996 45.0379
11.1543 4.71366 44.7861 11.3186 4.72466 44.5325 11.4802 4.73322 44.277
11.6388 4.73986 44.0194 11.7944 4.74498 43.7598 11.9476 4.74906 43.4986
12.0984 4.75244 43.2359 12.2469 4.7555 42.9718 12.3932 4.75864 42.7063
12.5369 4.76242 42.4394 12.678 4.76757 42.171 12.8163 4.77504 41.901
12.9517 4.786 41.6296 13.0841 4.80122 41.3568 13.2133 4.82168 41.0827
13.3386 4.84843 40.8072 13.4593 4.88255 40.5304 13.5738 4.92494 40.2518
13.6807 4.9762 39.9716 13.7782 5.03672 39.6896 13.8671 5.10469 39.4063
13.9471 5.17957 39.1219 14.0173 5.2608 38.8365 14.0767 5.34769 38.5502
14.1242 5.43909 38.263 14.1586 5.53338 37.9747 14.1812 5.62846 37.6855
14.192 5.7227 37.3952 14.191 5.8147 37.1039 14.178 5.9033 36.8119
14.1526 5.98746 36.5194 14.1161 6.06642 36.2266 14.0686 6.13943 35.934
14.01 6.20581 35.6419 13.9401 6.2652 35.3509 13.859 6.31764 35.0617
13.7667 6.36372 34.7749 13.6648 6.40457 34.491 13.5536 6.44131 34.2101
13.4336 6.47499 33.9329 13.3049 6.50629 33.6596 13.168 6.53579 33.3904
13.0236 6.56351 33.1254 12.8729 6.58923 32.8639 12.7165 6.61235 32.6059
12.5547 6.63237 32.3511 12.3875 6.64892 32.1 12.2145 6.66191 31.8529
12.035 6.67145 31.6106 11.8482 6.6783 31.3744 11.6541 6.68256 31.1446
11.4532 6.68541 30.921 11.2465 6.68754 30.7034 11.035 6.68945 30.4908
10.8201 6.69126 30.2819 10.6031 6.69247 30.0753 10.3851 6.69212 29.8699
10.1668 6.6892 29.6648 9.94889 6.68222 29.4594 9.73113 6.67145 29.254
9.51269 6.65737 29.0496 9.29231 6.64087 28.8477 9.06867 6.62264 28.6498
8.84067 6.60289 28.4576 8.60772 6.58132 28.272 8.36977 6.55752 28.0938
8.12703 6.53141 27.9231 7.88055 6.50307 27.7587 7.63088 6.4728 27.5999
7.37828 6.44099 27.4465 7.12271 6.40802 27.2988 6.86398 6.37424 27.1575
6.6019 6.34012 27.023 6.33688 6.30692 26.8947 6.06923 6.27518 26.772
5.7993 6.24532 26.6543 5.52735 6.21745 26.5413 5.25351 6.19128 26.4329
4.97776 6.16623 26.3296 4.70063 6.14129 26.2302 4.42225 6.11526 26.1351
4.14272 6.08698 26.0444 3.86213 6.05524 25.9585 3.58053 6.01876 25.8784
3.29803 5.9763 25.8051 3.01497 5.92818 25.738 2.73155 5.87461 25.6771
2.44793 5.81623 25.6221 2.16422 5.7537 25.5727 1.88048 5.68764 25.5285
1.59678 5.61856 25.4891 1.31308 5.54777 25.4529 1.02941 5.47564 25.4194
0.745783 5.40245 25.3879 0.462188 5.32833 25.3585 0.178576 5.25344 25.3313
-0.105173 5.17806 25.3073 -0.389155 5.10275 25.2862 -0.673448 5.02793 25.268
-0.958043 4.95389 25.2517 -1.24264 4.87986 25.2354 -1.52737 4.80578 25.2221
-1.81252 4.73265 25.2145 -2.09835 4.66188 25.2157 -2.38471 4.59434 25.227
-2.67133 4.53045 25.2486 -2.95787 4.47035 25.2804 -3.244 4.41402 25.3219
-3.52949 4.36122 25.3721 -3.81403 4.31148 25.4306 -4.09759 4.2637 25.4956
-4.38014 4.21675 25.5659 -4.66163 4.16954 25.6404 -4.94192 4.1211 25.7189
-5.22087 4.0706 25.8011 -5.49809 4.01729 25.8876 -5.77352 3.96086 25.9783
-6.04701 3.90125 26.073 -6.31838 3.83867 26.1723 -6.58735 3.77368 26.2768
-6.85366 3.70718 26.3876 -7.11681 3.6401 26.5059 -7.37698 3.57421 26.6319
-7.6344 3.51107 26.7651 -7.88943 3.45204 26.9052 -8.14253 3.39822 27.0511
-8.3942 3.35035 27.2017 -8.64481 3.30896 27.3562 -8.89482 3.27315 27.5132
-9.14434 3.24185 27.672 -9.39338 3.21398 27.8323 -9.6418 3.18856 27.9941
-9.88932 3.16463 28.1576 -10.1354 3.14127 28.3235 -10.3798 3.11686 28.4919
-10.6223 3.09033 28.663 -10.8628 3.06081 28.8365 -11.1014 3.0275 29.0121
-11.3384 2.98964 29.1893 -11.5738 2.94655 29.3674 -11.8076 2.89797 29.5462
-12.0398 2.84393 29.7258 -12.2701 2.78543 29.9066 -12.4979 2.72287 30.0893
-12.7229 2.65684 30.2745 -12.9447 2.58704 30.4624 -13.1627 2.51232 30.6532
-13.376 2.43096 30.8469 -13.5837 2.34137 31.0433 -13.7852 2.24238 31.242
-13.9799 2.13376 31.4428 -14.1676 2.01629 31.6456 -14.3477 1.89099 31.851
-14.5207 1.76026 32.0595 -14.6871 1.62665 32.2718 -14.8475 1.49246 32.4888
-15.002 1.35943 32.711 -15.1507 1.22967 32.9394 -15.2928 1.10263 33.1739
[...]
POINT_DATA 23159
TENSORS Tensor1 float
0.00119694 -0.000151027 0.000614468
-0.000151027 0.00160869 -0.000125272
0.000614468 -0.000125272 0.000318052
0.00117958 -0.000148717 0.000630986
-0.000148717 0.00161044 -0.000134076
0.000630986 -0.000134076 0.000340591
0.00116333 -0.000144659 0.000644832
-0.000144659 0.00161271 -0.000144067
0.000644832 -0.000144067 0.000361204
0.0011447 -0.000138564 0.000659088
-0.000138564 0.00161488 -0.000156305
0.000659088 -0.000156305 0.000384389
0.00112174 -0.00013088 0.000675468
-0.00013088 0.00161574 -0.000170345
0.000675468 -0.000170345 0.000413245
0.00109299 -0.000122385 0.000694864
-0.000122385 0.00161411 -0.000185223
0.000694864 -0.000185223 0.000450276
0.00105889 -0.000113847 0.000716537
-0.000113847 0.00160918 -0.00019973
0.000716537 -0.00019973 0.000495653
0.00102275 -0.000108618 0.000738684
-0.000108618 0.00160195 -0.000211055
0.000738684 -0.000211055 0.000545991
0.000987774 -0.000104707 0.000758279
-0.000104707 0.00159366 -0.000220555
0.000758279 -0.000220555 0.000596
0.000958422 -9.97909e-05 0.000772952
-9.97909e-05 0.00158638 -0.000229836
0.000772952 -0.000229836 0.000639067
0.000936028 -9.5228e-05 0.000783292
-9.5228e-05 0.0015811 -0.000238834
0.000783292 -0.000238834 0.000673182
0.000921415 -9.10066e-05 0.000789517
-9.10066e-05 0.00157872 -0.000248719
0.000789517 -0.000248719 0.000696691
0.000914355 -8.76645e-05 0.000792193
-8.76645e-05 0.00157956 -0.000260242
0.000792193 -0.000260242 0.000709605
0.000913682 -8.59714e-05 0.000792045
-8.59714e-05 0.00158341 -0.000273444
0.000792045 -0.000273444 0.000713362
0.000917732 -8.64629e-05 0.000789972
-8.64629e-05 0.00158949 -0.000287607
0.000789972 -0.000287607 0.000710378
0.000924033 -9.20504e-05 0.00078774
-9.20504e-05 0.00159708 -0.000300311
0.00078774 -0.000300311 0.000704183
0.000928269 -9.92201e-05 0.000786539
-9.92201e-05 0.00160417 -0.000312167
0.000786539 -0.000312167 0.000700744
0.000931199 -0.000104348 0.000785658
-0.000104348 0.00161034 -0.000324081
0.000785658 -0.000324081 0.000699373
0.000930408 -0.000109656 0.000788329
-0.000109656 0.00161436 -0.000334059
0.000788329 -0.000334059 0.000705936
0.000925367 -0.000115065 0.000795705
-0.000115065 0.00161587 -0.000342503
0.000795705 -0.000342503 0.000722962
0.000915947 -0.000121033 0.000808314
-0.000121033 0.00161478 -0.000350302
0.000808314 -0.000350302 0.000752167
0.000902835 -0.000127988 0.000825726
-0.000127988 0.00161112 -0.000358487
0.000825726 -0.000358487 0.00079361
0.000888189 -0.000135976 0.000846748
-0.000135976 0.00160494 -0.000367617
0.000846748 -0.000367617 0.000844881
0.000875106 -0.000146841 0.000870168
-0.000146841 0.001598 -0.000377032
0.000870168 -0.000377032 0.000901141
0.000864247 -0.000156742 0.00089366
-0.000156742 0.00159045 -0.000387453
0.00089366 -0.000387453 0.00095863
0.000854817 -0.000164686 0.000916811
-0.000164686 0.00158217 -0.000397231
0.000916811 -0.000397231 0.0010168
0.000847163 -0.00016666 0.000937462
-0.00016666 0.00157547 -0.000406599
0.000937462 -0.000406599 0.00107157
0.000840448 -0.000165032 0.000957193
-0.000165032 0.00156906 -0.000413934
0.000957193 -0.000413934 0.00112564
0.00083471 -0.000160391 0.000976609
-0.000160391 0.00156313 -0.000418415
0.000976609 -0.000418415 0.00117971
0.000830324 -0.000153995 0.000996471
-0.000153995 0.00155835 -0.000419099
0.000996471 -0.000419099 0.00123414
0.000829193 -0.000150521 0.00101655
-0.000150521 0.00155608 -0.000416246
0.00101655 -0.000416246 0.00128383
0.000830029 -0.000147961 0.00103696
-0.000147961 0.00155681 -0.000410326
0.00103696 -0.000410326 0.00133121
0.000832148 -0.000145892 0.00105733
-0.000145892 0.00156047 -0.000401825
0.00105733 -0.000401825 0.00137655
0.000834596 -0.000143006 0.00107704
-0.000143006 0.00156643 -0.000391791
0.00107704 -0.000391791 0.00142038
0.000836637 -0.000137912 0.00109531
-0.000137912 0.001574 -0.000381753
0.00109531 -0.000381753 0.00146273
0.000838218 -0.000129557 0.00111169
-0.000129557 0.00158291 -0.000373138
0.00111169 -0.000373138 0.00150305
0.000840926 -0.00012082 0.00112565
-0.00012082 0.00159393 -0.000368634
0.00112565 -0.000368634 0.00153669
0.000843976 -0.000108941 0.00113782
-0.000108941 0.00160712 -0.000366935
0.00113782 -0.000366935 0.00156716
0.000847604 -9.38921e-05 0.00114886
-9.38921e-05 0.00162296 -0.000366864
0.00114886 -0.000366864 0.00159561
0.000851277 -7.55714e-05 0.00115929
-7.55714e-05 0.00164098 -0.000366761
0.00115929 -0.000366761 0.0016242
0.000856996 -5.04626e-05 0.00116804
-5.04626e-05 0.00166241 -0.000371089
0.00116804 -0.000371089 0.00164992
0.000864965 -2.13597e-05 0.00117634
-2.13597e-05 0.00168393 -0.000377605
0.00117634 -0.000377605 0.00167485
0.000875159 5.0002e-06 0.0011839
5.0002e-06 0.00170322 -0.000385481
0.0011839 -0.000385481 0.00169478
0.00088707 3.03234e-05 0.00119086
3.03234e-05 0.00172068 -0.000394056
0.00119086 -0.000394056 0.00171148
0.00090018 5.38534e-05 0.00119718
5.38534e-05 0.00173654 -0.000402702
0.00119718 -0.000402702 0.00172485
0.000914287 7.57414e-05 0.001203
7.57414e-05 0.00175158 -0.000410929
0.001203 -0.000410929 0.00173514
0.000929316 9.69116e-05 0.00120875
9.69116e-05 0.0017661 -0.000417953
0.00120875 -0.000417953 0.00174363
0.000945394 0.000118186 0.00121469
0.000118186 0.00178219 -0.000423746
0.00121469 -0.000423746 0.00175103
0.000960774 0.000136481 0.00122094
0.000136481 0.00180013 -0.000427081
0.00122094 -0.000427081 0.00175691
0.000976873 0.000156352 0.00122767
0.000156352 0.00182063 -0.000428695
0.00122767 -0.000428695 0.00176337
0.000991993 0.000178974 0.00123376
0.000178974 0.00184121 -0.000428874
0.00123376 -0.000428874 0.00177192
0.0010063 0.000202661 0.00123988
0.000202661 0.0018587 -0.000425586
0.00123988 -0.000425586 0.00178134
0.00101939 0.000225861 0.00124617
0.000225861 0.0018707 -0.000418536
0.00124617 -0.000418536 0.00179124
0.00103051 0.000246513 0.00125288
0.000246513 0.00187726 -0.000405946
0.00125288 -0.000405946 0.00179986
0.00103681 0.000261991 0.00125873
0.000261991 0.0018809 -0.000389794
0.00125873 -0.000389794 0.00180704
0.00103899 0.000273328 0.00126379
0.000273328 0.00188214 -0.000370586
0.00126379 -0.000370586 0.00181305
0.00103752 0.000281065 0.00126758
0.000281065 0.00188231 -0.000351011
0.00126758 -0.000351011 0.00181844
0.00103317 0.000286239 0.00126951
0.000286239 0.00188224 -0.000334852
0.00126951 -0.000334852 0.00182421
0.00102644 0.000289905 0.00126889
0.000289905 0.001882 -0.000325921
0.00126889 -0.000325921 0.00183166
0.00100443 -0.000298112 -0.00125984
-0.000298112 0.00187903 -0.000325803
-0.00125984 -0.000325803 0.00185665
0.00102644 -0.000289905 -0.00126889
-0.000289905 0.001882 -0.000325921
-0.00126889 -0.000325921 0.00183166
0.00103193 -0.000288278 -0.00127393
-0.000288278 0.0018816 -0.000313179
-0.00127393 -0.000313179 0.00182412
0.00103249 -0.000287015 -0.00127891
-0.000287015 0.00187852 -0.000290702
-0.00127891 -0.000290702 0.00181919
0.00102988 -0.000285166 -0.00128334
-0.000285166 0.00187163 -0.000260887
-0.00128334 -0.000260887 0.00181392
0.00102658 -0.000281794 -0.00128704
-0.000281794 0.00185862 -0.000225912
-0.00128704 -0.000225912 0.00180484
0.00102299 -0.000277845 -0.00128863
-0.000277845 0.00183622 -0.00018844
-0.00128863 -0.00018844 0.00179079
0.00101931 -0.00027431 -0.0012874
-0.00027431 0.0018034 -0.000150772
-0.0012874 -0.000150772 0.00177183
0.00101798 -0.000272663 -0.00128344
-0.000272663 0.00175809 -0.000113147
-0.00128344 -0.000113147 0.00174488
0.00101738 -0.000272876 -0.00127648
-0.000272876 0.00170551 -8.15484e-05
-0.00127648 -8.15484e-05 0.00171447
0.00101732 -0.000275186 -0.0012669
-0.000275186 0.00165026 -5.64649e-05
-0.0012669 -5.64649e-05 0.00168161
0.00101687 -0.000278446 -0.00125496
-0.000278446 0.00159483 -3.85923e-05
-0.00125496 -3.85923e-05 0.00164778
0.00101642 -0.000282323 -0.00124093
-0.000282323 0.00154153 -2.77497e-05
-0.00124093 -2.77497e-05 0.00161257
0.00101745 -0.000287176 -0.00122482
-0.000287176 0.00149024 -2.14525e-05
-0.00122482 -2.14525e-05 0.00157281
0.00101812 -0.000291718 -0.00120674
-0.000291718 0.00144571 -2.11199e-05
-0.00120674 -2.11199e-05 0.00153179
0.00102158 -0.000296172 -0.00118627
-0.000296172 0.00140821 -3.04059e-05
-0.00118627 -3.04059e-05 0.0014861
0.00102373 -0.000300473 -0.00116374
-0.000300473 0.00137929 -3.9721e-05
-0.00116374 -3.9721e-05 0.00143808
0.00102539 -0.000305034 -0.00113974
-0.000305034 0.00135895 -4.67621e-05
-0.00113974 -4.67621e-05 0.00138675
0.00102592 -0.000309941 -0.00111476
-0.000309941 0.00134666 -4.8885e-05
-0.00111476 -4.8885e-05 0.00133248
0.00102405 -0.000314566 -0.00108923
-0.000314566 0.00134138 -4.46674e-05
-0.00108923 -4.46674e-05 0.00127654
0.00101809 -0.000318734 -0.00106407
-0.000318734 0.00134307 -3.03813e-05
-0.00106407 -3.03813e-05 0.00122079
0.00100716 -0.000319987 -0.00103957
-0.000319987 0.00134933 -1.17704e-05
-0.00103957 -1.17704e-05 0.00116913
0.000991969 -0.000318055 -0.00101626
-0.000318055 0.00135821 8.34749e-06
-0.00101626 8.34749e-06 0.00112369
0.000974453 -0.000313306 -0.000994875
-0.000313306 0.00136835 2.74005e-05
-0.000994875 2.74005e-05 0.00108546
0.000956731 -0.000306562 -0.000976026
-0.000306562 0.00137913 4.35616e-05
-0.000976026 4.35616e-05 0.00105451
0.000940411 -0.000298542 -0.000960033
-0.000298542 0.00139046 5.56576e-05
-0.000960033 5.56576e-05 0.00103016
0.000925938 -0.000289985 -0.000947034
-0.000289985 0.00140247 6.55185e-05
-0.000947034 6.55185e-05 0.00101149
0.000913263 -0.000280464 -0.000935939
-0.000280464 0.00141377 6.99367e-05
-0.000935939 6.99367e-05 0.000996954
0.000900682 -0.000269714 -0.000925607
-0.000269714 0.00142421 7.07117e-05
-0.000925607 7.07117e-05 0.000985072
0.000887579 -0.000256846 -0.000914571
-0.000256846 0.0014352 6.88071e-05
-0.000914571 6.88071e-05 0.000972664
0.000872954 -0.000242805 -0.000903677
-0.000242805 0.00144543 6.70235e-05
-0.000903677 6.70235e-05 0.000962216
0.000858467 -0.000227904 -0.000893195
-0.000227904 0.00145552 6.748e-05
-0.000893195 6.748e-05 0.00095202
0.000845585 -0.000212592 -0.000883546
-0.000212592 0.00146574 7.1826e-05
-0.000883546 7.1826e-05 0.000941261
0.000837161 -0.000199415 -0.000875718
-0.000199415 0.00147479 8.00821e-05
-0.000875718 8.00821e-05 0.000929658
0.000833575 -0.000188242 -0.000869182
-0.000188242 0.00148262 9.01045e-05
-0.000869182 9.01045e-05 0.000916152
0.000834202 -0.000180211 -0.000863789
-0.000180211 0.0014888 9.9469e-05
-0.000863789 9.9469e-05 0.000901651
0.000838485 -0.000176145 -0.000859441
-0.000176145 0.00149295 0.00010543
-0.000859441 0.00010543 0.000886755
0.000845814 -0.000176565 -0.000856109
-0.000176565 0.00149473 0.00010586
-0.000856109 0.00010586 0.000872098
0.000855854 -0.00018158 -0.000853775
-0.00018158 0.00149383 9.97835e-05
-0.000853775 9.97835e-05 0.000858145
0.000870176 -0.00019068 -0.000851866
-0.00019068 0.00149069 8.58723e-05
-0.000851866 8.58723e-05 0.000842814
0.000889676 -0.000206358 -0.00085096
-0.000206358 0.00148193 6.35967e-05
-0.00085096 6.35967e-05 0.000828239
0.000914275 -0.000224028 -0.000849978
-0.000224028 0.00146919 3.58387e-05
-0.000849978 3.58387e-05 0.000813024
0.000945003 -0.000242515 -0.000848124
-0.000242515 0.00145223 3.24409e-06
-0.000848124 3.24409e-06 0.000796011
0.000983739 -0.000260534 -0.0008445
-0.000260534 0.00143051 -3.429e-05
-0.0008445 -3.429e-05 0.000775559
0.00103282 -0.000276421 -0.000837938
-0.000276421 0.0014031 -7.7765e-05
-0.000837938 -7.7765e-05 0.000750136
0.00109307 -0.000287018 -0.000827084
-0.000287018 0.00137131 -0.000124902
-0.000827084 -0.000124902 0.000717734
0.0011622 -0.000289229 -0.000811161
-0.000289229 0.00133791 -0.000172325
-0.000811161 -0.000172325 0.000678308
0.00123393 -0.000282303 -0.000791154
-0.000282303 0.00130805 -0.00021344
-0.000791154 -0.00021344 0.000633865
0.00130387 -0.000267233 -0.000766856
-0.000267233 0.001286 -0.000247117
-0.000766856 -0.000247117 0.000585176
0.00136137 -0.000250455 -0.000743481
-0.000250455 0.00127371 -0.000267783
-0.000743481 -0.000267783 0.000540704
0.00140626 -0.00023624 -0.000722491
-0.00023624 0.00126961 -0.000277003
-0.000722491 -0.000277003 0.000501517
0.00144069 -0.00022627 -0.000703813
-0.00022627 0.00127149 -0.000277314
-0.000703813 -0.000277314 0.000466786
0.00146774 -0.000220129 -0.000686183
-0.000220129 0.00127765 -0.000271316
-0.000686183 -0.000271316 0.000434523
0.00149067 -0.000216284 -0.000667633
-0.000216284 0.001287 -0.000261228
-0.000667633 -0.000261228 0.000402316
0.0015126 -0.00021287 -0.000645825
-0.00021287 0.00129877 -0.000248732
-0.000645825 -0.000248732 0.00036779
0.00153619 -0.000208225 -0.000618337
-0.000208225 0.00131235 -0.000234838
-0.000618337 -0.000234838 0.000329073
0.00156407 -0.000200786 -0.000581888
-0.000200786 0.00132711 -0.000219709
-0.000581888 -0.000219709 0.000284169
0.00159543 -0.000191655 -0.000534425
-0.000191655 0.00134409 -0.000200716
-0.000534425 -0.000200716 0.000233186
0.00162761 -0.000180085 -0.000478663
-0.000180085 0.00135937 -0.000180844
-0.000478663 -0.000180844 0.000182592
0.00165819 -0.000167106 -0.000416817
-0.000167106 0.00137176 -0.000159924
-0.000416817 -0.000159924 0.00013585
0.00168535 -0.000153177 -0.000351566
-0.000153177 0.00138027 -0.000138353
-0.000351566 -0.000138353 9.55214e-05
0.00170853 -0.000137863 -0.000284119
-0.000137863 0.0013845 -0.000116124
-0.000284119 -0.000116124 6.22639e-05
0.00172783 -0.000120197 -0.000213467
-0.000120197 0.00138453 -9.20122e-05
-0.000213467 -9.20122e-05 3.55953e-05
0.00174293 -9.94826e-05 -0.000137561
-9.94826e-05 0.00138062 -6.35476e-05
-0.000137561 -6.35476e-05 1.54798e-05
0.0017527 -7.55507e-05 -5.44239e-05
-7.55507e-05 0.00137322 -2.73573e-05
-5.44239e-05 -2.73573e-05 3.24365e-06
0.00175501 -5.03179e-05 2.96615e-05
-5.03179e-05 0.0013619 1.63306e-05
2.96615e-05 1.63306e-05 1.62835e-06
0.00174945 -2.49205e-05 0.000110948
-2.49205e-05 0.00134664 6.69085e-05
0.000110948 6.69085e-05 1.14368e-05
0.00173757 -2.12866e-07 0.000181428
-2.12866e-07 0.0013299 0.000118999
0.000181428 0.000118999 3.05223e-05
0.00172268 2.3209e-05 0.000236565
2.3209e-05 0.00131443 0.000166596
0.000236565 0.000166596 5.37437e-05
0.00170898 4.44512e-05 0.000275095
4.44512e-05 0.00130249 0.000204497
0.000275095 0.000204497 7.5155e-05
0.00170014 6.23323e-05 0.000299041
6.23323e-05 0.00129423 0.00023031
0.000299041 0.00023031 9.07912e-05
0.00169796 7.58246e-05 0.000312458
7.58246e-05 0.00128789 0.000244837
0.000312458 0.000244837 9.99503e-05
0.00170256 8.36925e-05 0.000320166
8.36925e-05 0.00128102 0.000250747
0.000320166 0.000250747 0.000104408
0.00171193 8.61013e-05 0.000325997
8.61013e-05 0.00127207 0.0002515
0.000325997 0.0002515 0.000106624
0.00172277 8.06059e-05 0.000337895
8.06059e-05 0.00125829 0.000252604
0.000337895 0.000252604 0.000111915
0.00173346 7.25679e-05 0.000352409
7.25679e-05 0.00124356 0.000254276
0.000352409 0.000254276 0.00011884
0.00174236 6.04789e-05 0.000371848
6.04789e-05 0.00122711 0.000257396
0.000371848 0.000257396 0.000129108
0.00174794 4.62043e-05 0.00039545
4.62043e-05 0.00121008 0.000262183
0.00039545 0.000262183 0.000142848
0.001749 3.08956e-05 0.000422566
3.08956e-05 0.0011931 0.000268649
0.000422566 0.000268649 0.000160271
0.00174475 1.4998e-05 0.000452577
1.4998e-05 0.00117643 0.000276533
0.000452577 0.000276533 0.000181579
0.00173495 -1.46421e-06 0.000484514
-1.46421e-06 0.00116029 0.000285154
0.000484514 0.000285154 0.0002066
0.00171802 -2.0696e-05 0.000519905
-2.0696e-05 0.00114377 0.000294038
0.000519905 0.000294038 0.000237229
0.00169814 -4.32783e-05 0.000553345
-4.32783e-05 0.00112935 0.000298814
0.000553345 0.000298814 0.000268153
0.00167667 -6.66883e-05 0.000582802
-6.66883e-05 0.00111814 0.000299783
0.000582802 0.000299783 0.000297165
0.00165542 -9.15625e-05 0.000607455
-9.15625e-05 0.00111078 0.000295856
0.000607455 0.000295856 0.000322167
0.00163575 -0.000118217 0.000626674
-0.000118217 0.00110806 0.00028629
0.000626674 0.00028629 0.000341195
0.00161796 -0.000147002 0.000640379
-0.000147002 0.00111078 0.00027072
0.000640379 0.00027072 0.000353158
0.00160108 -0.000178161 0.000648987
-0.000178161 0.00111984 0.000249167
0.000648987 0.000249167 0.000358091
0.00158324 -0.000211385 0.000653169
-0.000211385 0.00113613 0.000222114
0.000653169 0.000222114 0.00035696
0.0015607 -0.000247494 0.000654571
-0.000247494 0.00116161 0.000189075
0.000654571 0.000189075 0.000352089
0.00153572 -0.000279911 0.00065199
-0.000279911 0.00119469 0.000154882
0.00065199 0.000154882 0.000343434
0.00150451 -0.000310586 0.000646394
-0.000310586 0.00123798 0.000117178
0.000646394 0.000117178 0.000332332
0.00147153 -0.000333941 0.000638801
-0.000333941 0.00128453 8.13275e-05
0.000638801 8.13275e-05 0.000320768
0.00143767 -0.000350162 0.000630155
-0.000350162 0.0013318 4.79443e-05
0.000630155 4.79443e-05 0.000309835
0.00140421 -0.000359654 0.000621003
-0.000359654 0.00137733 1.74975e-05
0.000621003 1.74975e-05 0.000299949
0.00137191 -0.000363232 0.000611744
-0.000363232 0.00141985 -1.00271e-05
0.000611744 -1.00271e-05 0.000291264
0.00134085 -0.000361643 0.000602664
-0.000361643 0.00145925 -3.51196e-05
0.000602664 -3.51196e-05 0.000283827
0.00131086 -0.00035537 0.000594113
-0.00035537 0.0014956 -5.83709e-05
0.000594113 -5.83709e-05 0.00027782
0.0012817 -0.0003446 0.000585233
-0.0003446 0.00153042 -8.09581e-05
0.000585233 -8.09581e-05 0.000272288
0.00125584 -0.000330973 0.00057817
-0.000330973 0.00155928 -0.000100991
0.00057817 -0.000100991 0.000268976
0.00123389 -0.00031602 0.000572992
-0.00031602 0.00158222 -0.000118343
0.000572992 -0.000118343 0.000267623
0.00121683 -0.000301456 0.000569293
-0.000301456 0.00159944 -0.000132446
0.000569293 -0.000132446 0.000267384
0.00120353 -0.000287688 0.000568169
-0.000287688 0.00161098 -0.000143351
0.000568169 -0.000143351 0.000269244
0.00119672 -0.000277166 0.000566254
-0.000277166 0.00161828 -0.000149609
0.000566254 -0.000149609 0.000269118
0.0011956 -0.00027 0.000562078
-0.00027 0.0016228 -0.000151809
0.000562078 -0.000151809 0.000265576
0.00119865 -0.000266234 0.000556863
-0.000266234 0.001624 -0.000150258
0.000556863 -0.000150258 0.000260058
0.00120411 -0.000264588 0.000551134
-0.000264588 0.0016232 -0.000146498
0.000551134 -0.000146498 0.000253545
0.00121062 -0.000263809 0.00054563
-0.000263809 0.0016215 -0.000141853
0.00054563 -0.000141853 0.000247105
0.00121715 -0.000262972 0.000540817
-0.000262972 0.00161962 -0.0001372
0.000540817 -0.0001372 0.000241404
0.0012231 -0.000261615 0.000536773
-0.000261615 0.00161767 -0.000132868
0.000536773 -0.000132868 0.000236612
0.00123002 -0.00026013 0.0005313
-0.00026013 0.00161583 -0.000128047
0.0005313 -0.000128047 0.000230483
0.00123701 -0.000258219 0.000525326
-0.000258219 0.00161341 -0.000122935
0.000525326 -0.000122935 0.000224048
0.00124543 -0.000256314 0.000517419
-0.000256314 0.00161029 -0.000116695
0.000517419 -0.000116695 0.000215883
0.00125661 -0.000254702 0.000505971
-0.000254702 0.00160657 -0.000108791
0.000505971 -0.000108791 0.000204616
0.00127149 -0.000253492 0.000489206
-0.000253492 0.00160248 -9.9046e-05
0.000489206 -9.9046e-05 0.000189097
0.00129024 -0.00025201 0.00046724
-0.00025201 0.00159757 -8.73945e-05
0.00046724 -8.73945e-05 0.000170094
0.00131214 -0.000250953 0.000437813
-0.000250953 0.00159243 -7.46579e-05
0.000437813 -7.46579e-05 0.000147025
0.00133478 -0.000249866 0.000404575
-0.000249866 0.00158683 -6.20786e-05
0.000404575 -6.20786e-05 0.000123644
0.00135608 -0.00024868 0.00037146
-0.00024868 0.00158028 -5.04758e-05
0.00037146 -5.04758e-05 0.000102855
0.00137327 -0.000247321 0.000342431
-0.000247321 0.00157086 -4.03536e-05
0.000342431 -4.03536e-05 8.65893e-05
0.00138566 -0.00024576 0.000321045
-0.00024576 0.00155847 -3.17883e-05
0.000321045 -3.17883e-05 7.57095e-05
0.00139364 -0.000244023 0.000309093
-0.000244023 0.00154342 -2.45166e-05
0.000309093 -2.45166e-05 7.00505e-05
0.00139781 -0.000241966 0.000307065
-0.000241966 0.00152591 -1.7902e-05
0.000307065 -1.7902e-05 6.9212e-05
0.00139981 -0.00023936 0.000313327
-0.00023936 0.00150876 -1.16007e-05
0.000313327 -1.16007e-05 7.22602e-05
0.00140052 -0.00023608 0.000325281
-0.00023608 0.00149285 -5.16042e-06
0.000325281 -5.16042e-06 7.81801e-05
0.00140034 -0.00023196 0.000340805